; Energy minimization for solvated system before adding ions
integrator      = steep       ; steepest descent
emtol           = 1000.0     ; stop when max force < 1000 kJ/mol/nm
emstep          = 0.01       ; initial step size
nsteps          = 50000      ; max steps

; Output control
nstenergy       = 10
energygrps      = System

; Neighbor searching
cutoff-scheme   = Verlet
ns_type         = grid
coulombtype     = PME
rcoulomb        = 1.0
rvdw            = 1.0
pbc             = xyz

